 Variables="X","Y","Z","Dx","Dy","Dz","D"
    zone t="     1"
                     2897.4502                     2909.8755                     5746.7651                        0.0000                        1.0000                        0.0000                        2.0000
                     2887.4646                     2936.3464                     5700.8994                        0.0000                        1.0000                        0.0000                        2.0000
                     2955.8105                     2937.1316                     5699.5938                        0.0000                        1.0000                        0.0000                        2.0000
                     2970.1921                     2896.7329                     5747.5728                        0.0000                        1.0000                        0.0000                        2.0000
                     2906.2043                     2959.3521                     5711.4531                        0.0000                        1.0000                        0.0000                        2.0000
                     2931.4077                     2958.8989                     5765.7388                        0.0000                        1.0000                        0.0000                        2.0000
                     2928.5574                     2876.0537                     5719.1973                        0.0000                        1.0000                        0.0000                        2.0000
                     2902.5964                     2929.5222                     5734.3042                        0.0000                        1.0000                        0.0000                        2.0000
                     2952.3372                     2966.8826                     5728.8945                        0.0000                        1.0000                        0.0000                        2.0000
                     2966.8015                     2940.0522                     5760.2998                        0.0000                        1.0000                        0.0000                        2.0000
                     2919.4604                     2930.5911                     5752.1836                        0.0000                        1.0000                        0.0000                        2.0000
                     2964.9656                     2924.5991                     5710.3901                        0.0000                        1.0000                        0.0000                        2.0000
                     2946.1157                     2873.0000                     5743.8945                        0.0000                        1.0000                        0.0000                        2.0000
                     2872.1792                     2924.8372                     5728.6904                        0.0000                        1.0000                        0.0000                        2.0000
                     2897.5747                     2945.1331                     5726.4790                        0.0000                        1.0000                        0.0000                        2.0000
                     2882.9973                     2919.6160                     5705.2100                        0.0000                        1.0000                        0.0000                        2.0000
                     2878.3286                     2906.8086                     5734.1567                        0.0000                        1.0000                        0.0000                        2.0000
                     2929.4734                     2872.3091                     5713.3730                        0.0000                        1.0000                        0.0000                        2.0000
                     2887.5837                     2953.6597                     5736.2969                        0.0000                        1.0000                        0.0000                        2.0000
                     2871.7603                     2924.9768                     5708.6646                        0.0000                        1.0000                        0.0000                        2.0000
                     2929.2466                     2965.7212                     5691.0479                        0.0000                        1.0000                        0.0000                        2.0000
                     2915.0347                     2884.1768                     5748.4102                        0.0000                        1.0000                        0.0000                        2.0000
                     2961.1677                     2895.5806                     5720.9185                        0.0000                        1.0000                        0.0000                        2.0000
                     2923.0818                     2933.3118                     5685.2017                        0.0000                        1.0000                        0.0000                        2.0000
                     2924.3606                     2927.8477                     5728.8774                        0.0000                        1.0000                        0.0000                        2.0000
                     2874.1519                     2914.8833                     5748.3062                        0.0000                        1.0000                        0.0000                        2.0000
                     2899.1433                     2876.7676                     5738.9912                        0.0000                        1.0000                        0.0000                        2.0000
                     2927.3132                     2886.9622                     5704.0078                        0.0000                        1.0000                        0.0000                        2.0000
                     2939.6489                     2925.0930                     5709.8306                        0.0000                        1.0000                        0.0000                        2.0000
                     2884.5737                     2921.8235                     5689.3857                        0.0000                        1.0000                        0.0000                        2.0000
                     2898.8982                     2957.8496                     5760.0835                        0.0000                        1.0000                        0.0000                        2.0000
                     2937.2773                     2948.5544                     5736.3018                        0.0000                        1.0000                        0.0000                        2.0000
                     2978.3806                     2917.6667                     5714.4048                        0.0000                        1.0000                        0.0000                        2.0000
                     2877.3369                     2919.7861                     5754.2202                        0.0000                        1.0000                        0.0000                        2.0000
                     2974.1147                     2939.8325                     5705.7905                        0.0000                        1.0000                        0.0000                        2.0000
                     2961.8904                     2946.6121                     5725.7139                        0.0000                        1.0000                        0.0000                        2.0000
                     2915.6694                     2943.8296                     5701.1001                        0.0000                        1.0000                        0.0000                        2.0000
                     2965.2683                     2962.5193                     5735.4976                        0.0000                        1.0000                        0.0000                        2.0000
                     2962.8469                     2908.8020                     5710.8960                        0.0000                        1.0000                        0.0000                        2.0000
                     2881.0383                     2941.3650                     5730.1709                        0.0000                        1.0000                        0.0000                        2.0000
                     2923.1562                     2964.4709                     5731.8594                        0.0000                        1.0000                        0.0000                        2.0000
                     2886.0764                     2905.0210                     5701.6685                        0.0000                        1.0000                        0.0000                        2.0000
                     2969.4648                     2927.3508                     5755.1250                        0.0000                        1.0000                        0.0000                        2.0000
                     2898.7134                     2947.7961                     5715.0884                        0.0000                        1.0000                        0.0000                        2.0000
                     2977.8755                     2910.2815                     5729.3501                        0.0000                        1.0000                        0.0000                        2.0000
                     2891.5774                     2901.2234                     5758.7778                        0.0000                        1.0000                        0.0000                        2.0000
                     2917.5066                     2874.2144                     5757.3906                        0.0000                        1.0000                        0.0000                        2.0000
                     2870.1184                     2927.8845                     5725.0347                        0.0000                        1.0000                        0.0000                        2.0000
                     2982.2197                     2927.7351                     5730.5923                        0.0000                        1.0000                        0.0000                        2.0000
                     2962.2539                     2967.5549                     5736.4912                        0.0000                        1.0000                        0.0000                        2.0000
                     2956.9329                     2954.9238                     5750.6030                        0.0000                        1.0000                        0.0000                        2.0000
                     2888.1440                     2935.0486                     5734.1621                        0.0000                        1.0000                        0.0000                        2.0000
                     2982.4348                     2926.2434                     5732.4111                        0.0000                        1.0000                        0.0000                        2.0000
                     2874.7410                     2923.9026                     5729.0361                        0.0000                        1.0000                        0.0000                        2.0000
                     2975.4141                     2914.8914                     5757.0635                        0.0000                        1.0000                        0.0000                        2.0000
                     2887.3745                     2968.0024                     5737.1279                        0.0000                        1.0000                        0.0000                        2.0000
                     2891.1597                     2935.5713                     5765.0640                        0.0000                        1.0000                        0.0000                        2.0000
                     2978.2686                     2937.1672                     5734.7183                        0.0000                        1.0000                        0.0000                        2.0000
                     2947.0073                     2962.5664                     5758.7373                        0.0000                        1.0000                        0.0000                        2.0000
                     2890.9429                     2946.1467                     5753.1982                        0.0000                        1.0000                        0.0000                        2.0000
                     2898.7603                     2899.5186                     5743.1465                        0.0000                        1.0000                        0.0000                        2.0000
                     2911.9031                     2975.2830                     5721.2734                        0.0000                        1.0000                        0.0000                        2.0000
                     2966.0859                     2892.2356                     5720.6401                        0.0000                        1.0000                        0.0000                        2.0000
                     2937.4187                     2960.9011                     5709.8594                        0.0000                        1.0000                        0.0000                        2.0000
                     2904.0869                     2899.1306                     5748.0137                        0.0000                        1.0000                        0.0000                        2.0000
                     2891.6897                     2893.4360                     5758.3730                        0.0000                        1.0000                        0.0000                        2.0000
                     2896.7959                     2956.7749                     5740.4727                        0.0000                        1.0000                        0.0000                        2.0000
                     2889.6760                     2889.9670                     5717.4209                        0.0000                        1.0000                        0.0000                        2.0000
                     2941.1223                     2944.2019                     5746.4766                        0.0000                        1.0000                        0.0000                        2.0000
                     2937.9509                     2972.3320                     5747.2402                        0.0000                        1.0000                        0.0000                        2.0000
                     2964.2183                     2891.4412                     5722.0244                        0.0000                        1.0000                        0.0000                        2.0000
                     2880.4260                     2938.3804                     5747.7656                        0.0000                        1.0000                        0.0000                        2.0000
                     2905.7268                     2914.1941                     5778.4609                        0.0000                        1.0000                        0.0000                        2.0000
                     2977.5562                     2905.4177                     5730.3696                        0.0000                        1.0000                        0.0000                        2.0000
                     2872.5161                     2905.6392                     5736.8154                        0.0000                        1.0000                        0.0000                        2.0000
                     2935.8513                     2877.2620                     5737.9551                        0.0000                        1.0000                        0.0000                        2.0000
                     2878.8926                     2899.0764                     5755.7451                        0.0000                        1.0000                        0.0000                        2.0000
                     2935.6902                     2972.9626                     5749.3237                        0.0000                        1.0000                        0.0000                        2.0000
                     2897.1462                     2902.0247                     5685.1724                        0.0000                        1.0000                        0.0000                        2.0000
                     2933.9604                     2885.3513                     5756.6694                        0.0000                        1.0000                        0.0000                        2.0000
                     2958.0137                     2942.6245                     5746.4082                        0.0000                        1.0000                        0.0000                        2.0000
                     2929.6746                     2868.7183                     5749.1602                        0.0000                        1.0000                        0.0000                        2.0000
                     2884.2493                     2892.1313                     5757.2534                        0.0000                        1.0000                        0.0000                        2.0000
                     2946.3877                     2903.9761                     5704.9565                        0.0000                        1.0000                        0.0000                        2.0000
                     2880.1658                     2937.3542                     5730.4268                        0.0000                        1.0000                        0.0000                        2.0000
                     2869.8752                     2938.3777                     5732.8657                        0.0000                        1.0000                        0.0000                        2.0000
                     2969.0447                     2931.6023                     5704.2935                        0.0000                        1.0000                        0.0000                        2.0000
                     2929.2998                     2902.3992                     5782.6772                        0.0000                        1.0000                        0.0000                        2.0000
                     2932.9678                     2902.4443                     5738.1704                        0.0000                        1.0000                        0.0000                        2.0000
                     2952.8044                     2923.5173                     5733.6890                        0.0000                        1.0000                        0.0000                        2.0000
                     2950.7415                     2910.6111                     5768.5781                        0.0000                        1.0000                        0.0000                        2.0000
                     2969.6272                     2919.6982                     5748.3237                        0.0000                        1.0000                        0.0000                        2.0000
                     2970.9092                     2910.8904                     5706.4219                        0.0000                        1.0000                        0.0000                        2.0000
                     2981.1611                     2912.4207                     5730.8242                        0.0000                        1.0000                        0.0000                        2.0000
                     2974.6731                     2913.5222                     5720.3394                        0.0000                        1.0000                        0.0000                        2.0000
                     2981.4568                     2931.2141                     5738.7856                        0.0000                        1.0000                        0.0000                        2.0000
                     2941.8430                     2892.8564                     5736.5854                        0.0000                        1.0000                        0.0000                        2.0000
                     2938.2886                     2878.7410                     5731.4697                        0.0000                        1.0000                        0.0000                        2.0000
                     2974.5615                     2916.5398                     5716.3560                        0.0000                        1.0000                        0.0000                        2.0000
                     2972.2983                     2955.1147                     5727.2646                        0.0000                        1.0000                        0.0000                        2.0000
                     2878.4868                     2910.5498                     5764.6016                        0.0000                        1.0000                        0.0000                        2.0000
                     2871.5588                     2929.0466                     5706.7783                        0.0000                        1.0000                        0.0000                        2.0000
                     2884.9578                     2903.0037                     5744.5405                        0.0000                        1.0000                        0.0000                        2.0000
                     2884.1523                     2917.3806                     5697.0840                        0.0000                        1.0000                        0.0000                        2.0000
                     2882.2124                     2960.8962                     5739.3184                        0.0000                        1.0000                        0.0000                        2.0000
                     2977.6531                     2916.6016                     5752.7471                        0.0000                        1.0000                        0.0000                        2.0000
                     2904.0337                     2978.8706                     5731.9736                        0.0000                        1.0000                        0.0000                        2.0000
                     2877.1235                     2919.2466                     5713.6128                        0.0000                        1.0000                        0.0000                        2.0000
                     2932.8708                     2912.8213                     5719.7681                        0.0000                        1.0000                        0.0000                        2.0000
                     2893.2678                     2883.3650                     5730.5225                        0.0000                        1.0000                        0.0000                        2.0000
                     2915.7158                     2886.9316                     5758.1743                        0.0000                        1.0000                        0.0000                        2.0000
                     2959.3218                     2955.2700                     5747.8613                        0.0000                        1.0000                        0.0000                        2.0000
                     2972.0051                     2899.3464                     5743.0815                        0.0000                        1.0000                        0.0000                        2.0000
                     2958.6331                     2922.7532                     5763.0005                        0.0000                        1.0000                        0.0000                        2.0000
                     2913.2000                     2934.4910                     5712.5059                        0.0000                        1.0000                        0.0000                        2.0000
                     2948.0303                     2893.8621                     5718.5981                        0.0000                        1.0000                        0.0000                        2.0000
                     2931.9885                     2898.9565                     5727.0518                        0.0000                        1.0000                        0.0000                        2.0000
                     2949.0759                     2936.4241                     5713.4048                        0.0000                        1.0000                        0.0000                        2.0000
                     2870.8164                     2922.2971                     5741.6655                        0.0000                        1.0000                        0.0000                        2.0000
                     2868.4729                     2920.1262                     5731.6953                        0.0000                        1.0000                        0.0000                        2.0000
                     2938.7407                     2965.6584                     5747.3701                        0.0000                        1.0000                        0.0000                        2.0000
                     2919.6250                     2870.2178                     5722.9214                        0.0000                        1.0000                        0.0000                        2.0000
                     2928.5183                     2907.5620                     5756.7065                        0.0000                        1.0000                        0.0000                        2.0000
                     2920.7444                     2954.7561                     5727.6270                        0.0000                        1.0000                        0.0000                        2.0000
                     2936.5127                     2933.3525                     5767.2134                        0.0000                        1.0000                        0.0000                        2.0000
                     2945.1233                     2919.3301                     5693.2393                        0.0000                        1.0000                        0.0000                        2.0000
                     2915.3821                     2910.9136                     5708.6938                        0.0000                        1.0000                        0.0000                        2.0000
                     2933.2371                     2887.0344                     5728.6138                        0.0000                        1.0000                        0.0000                        2.0000
                     2922.7407                     2947.2566                     5767.6118                        0.0000                        1.0000                        0.0000                        2.0000
                     2969.5525                     2954.6814                     5745.9463                        0.0000                        1.0000                        0.0000                        2.0000
                     2878.7632                     2959.4612                     5720.9521                        0.0000                        1.0000                        0.0000                        2.0000
                     2881.5024                     2891.9221                     5708.0723                        0.0000                        1.0000                        0.0000                        2.0000
                     2966.8257                     2903.3149                     5725.6050                        0.0000                        1.0000                        0.0000                        2.0000
                     2977.1260                     2935.9192                     5732.3672                        0.0000                        1.0000                        0.0000                        2.0000
                     2971.1296                     2939.1470                     5732.5518                        0.0000                        1.0000                        0.0000                        2.0000
                     2950.4600                     2936.3838                     5763.3979                        0.0000                        1.0000                        0.0000                        2.0000
                     2960.9172                     2944.3752                     5757.0811                        0.0000                        1.0000                        0.0000                        2.0000
                     2949.7515                     2883.5334                     5698.2480                        0.0000                        1.0000                        0.0000                        2.0000
                     2908.5151                     2978.5393                     5737.3262                        0.0000                        1.0000                        0.0000                        2.0000
                     2898.2581                     2877.5442                     5733.8691                        0.0000                        1.0000                        0.0000                        2.0000
                     2980.1257                     2925.2603                     5742.4170                        0.0000                        1.0000                        0.0000                        2.0000